ITEM: TIMESTEP
0          0
ITEM: NUMBER OF ATOMS
8000
ITEM: BOX BOUNDS
0 20
0 20
0 20
ITEM: ATOMS id type x y z
1 43 0 0 0 
2 56 1 0 0 
3 4 2 0 0 
4 49 3 0 0 
5 47 4 0 0 
6 53 5 0 0 
7 59 6 0 0 
8 71 7 0 0 
9 29 8 0 0 
10 99 9 0 0 
11 61 10 0 0 
12 17 11 0 0 
13 47 12 0 0 
14 10 13 0 0 
15 66 14 0 0 
16 59 15 0 0 
17 57 16 0 0 
18 9 17 0 0 
19 96 18 0 0 
20 71 19 0 0 
21 98 0 1 0 
22 49 1 1 0 
23 17 2 1 0 
24 65 3 1 0 
25 4 4 1 0 
26 28 5 1 0 
27 11 6 1 0 
28 55 7 1 0 
29 2 8 1 0 
30 43 9 1 0 
31 54 10 1 0 
32 10 11 1 0 
33 89 12 1 0 
34 20 13 1 0 
35 33 14 1 0 
36 4 15 1 0 
37 38 16 1 0 
38 48 17 1 0 
39 67 18 1 0 
40 50 19 1 0 
41 7 0 2 0 
42 10 1 2 0 
43 47 2 2 0 
44 14 3 2 0 
45 16 4 2 0 
46 10 5 2 0 
47 34 6 2 0 
48 50 7 2 0 
49 39 8 2 0 
50 39 9 2 0 
51 90 10 2 0 
52 70 11 2 0 
53 92 12 2 0 
54 94 13 2 0 
55 94 14 2 0 
56 9 15 2 0 
57 33 16 2 0 
58 14 17 2 0 
59 51 18 2 0 
60 16 19 2 0 
61 61 0 3 0 
62 6 1 3 0 
63 76 2 3 0 
64 49 3 3 0 
65 55 4 3 0 
66 64 5 3 0 
67 30 6 3 0 
68 72 7 3 0 
69 52 8 3 0 
70 68 9 3 0 
71 9 10 3 0 
72 43 11 3 0 
73 83 12 3 0 
74 17 13 3 0 
75 53 14 3 0 
76 23 15 3 0 
77 95 16 3 0 
78 90 17 3 0 
79 6 18 3 0 
80 91 19 3 0 
81 21 0 4 0 
82 39 1 4 0 
83 96 2 4 0 
84 63 3 4 0 
85 6 4 4 0 
86 57 5 4 0 
87 30 6 4 0 
88 90 7 4 0 
89 79 8 4 0 
90 43 9 4 0 
91 13 10 4 0 
92 54 11 4 0 
93 33 12 4 0 
94 40 13 4 0 
95 81 14 4 0 
96 38 15 4 0 
97 65 16 4 0 
98 41 17 4 0 
99 77 18 4 0 
100 33 19 4 0 
101 91 0 5 0 
102 24 1 5 0 
103 16 2 5 0 
104 85 3 5 0 
105 12 4 5 0 
106 1 5 5 0 
107 4 6 5 0 
108 65 7 5 0 
109 36 8 5 0 
110 97 9 5 0 
111 41 10 5 0 
112 96 11 5 0 
113 33 12 5 0 
114 55 13 5 0 
115 17 14 5 0 
116 5 15 5 0 
117 13 16 5 0 
118 97 17 5 0 
119 36 18 5 0 
120 86 19 5 0 
121 4 0 6 0 
122 26 1 6 0 
123 25 2 6 0 
124 11 3 6 0 
125 57 4 6 0 
126 78 5 6 0 
127 70 6 6 0 
128 37 7 6 0 
129 37 8 6 0 
130 1 9 6 0 
131 55 10 6 0 
132 65 11 6 0 
133 13 12 6 0 
134 59 13 6 0 
135 83 14 6 0 
136 40 15 6 0 
137 99 16 6 0 
138 12 17 6 0 
139 89 18 6 0 
140 41 19 6 0 
141 59 0 7 0 
142 93 1 7 0 
143 64 2 7 0 
144 92 3 7 0 
145 86 4 7 0 
146 77 5 7 0 
147 92 6 7 0 
148 92 7 7 0 
149 13 8 7 0 
150 1 9 7 0 
151 78 10 7 0 
152 58 11 7 0 
153 58 12 7 0 
154 49 13 7 0 
155 21 14 7 0 
156 54 15 7 0 
157 73 16 7 0 
158 43 17 7 0 
159 50 18 7 0 
160 85 19 7 0 
161 81 0 8 0 
162 84 1 8 0 
163 25 2 8 0 
164 91 3 8 0 
165 97 4 8 0 
166 98 5 8 0 
167 20 6 8 0 
168 98 7 8 0 
169 18 8 8 0 
170 5 9 8 0 
171 14 10 8 0 
172 59 11 8 0 
173 30 12 8 0 
174 89 13 8 0 
175 41 14 8 0 
176 100 15 8 0 
177 87 16 8 0 
178 97 17 8 0 
179 19 18 8 0 
180 69 19 8 0 
181 76 0 9 0 
182 17 1 9 0 
183 38 2 9 0 
184 66 3 9 0 
185 83 4 9 0 
186 82 5 9 0 
187 96 6 9 0 
188 83 7 9 0 
189 81 8 9 0 
190 6 9 9 0 
191 78 10 9 0 
192 62 11 9 0 
193 81 12 9 0 
194 26 13 9 0 
195 73 14 9 0 
196 81 15 9 0 
197 54 16 9 0 
198 48 17 9 0 
199 29 18 9 0 
200 50 19 9 0 
201 6 0 10 0 
202 39 1 10 0 
203 39 2 10 0 
204 8 3 10 0 
205 52 4 10 0 
206 19 5 10 0 
207 33 6 10 0 
208 73 7 10 0 
209 79 8 10 0 
210 60 9 10 0 
211 26 10 10 0 
212 1 11 10 0 
213 53 12 10 0 
214 75 13 10 0 
215 24 14 10 0 
216 47 15 10 0 
217 69 16 10 0 
218 9 17 10 0 
219 78 18 10 0 
220 48 19 10 0 
221 85 0 11 0 
222 97 1 11 0 
223 89 2 11 0 
224 60 3 11 0 
225 86 4 11 0 
226 47 5 11 0 
227 20 6 11 0 
228 13 7 11 0 
229 16 8 11 0 
230 79 9 11 0 
231 15 10 11 0 
232 66 11 11 0 
233 57 12 11 0 
234 81 13 11 0 
235 90 14 11 0 
236 98 15 11 0 
237 90 16 11 0 
238 4 17 11 0 
239 15 18 11 0 
240 63 19 11 0 
241 75 0 12 0 
242 66 1 12 0 
243 26 2 12 0 
244 69 3 12 0 
245 42 4 12 0 
246 72 5 12 0 
247 38 6 12 0 
248 38 7 12 0 
249 49 8 12 0 
250 4 9 12 0 
251 17 10 12 0 
252 41 11 12 0 
253 56 12 12 0 
254 42 13 12 0 
255 5 14 12 0 
256 73 15 12 0 
257 61 16 12 0 
258 89 17 12 0 
259 56 18 12 0 
260 100 19 12 0 
261 27 0 13 0 
262 21 1 13 0 
263 92 2 13 0 
264 55 3 13 0 
265 59 4 13 0 
266 65 5 13 0 
267 81 6 13 0 
268 25 7 13 0 
269 45 8 13 0 
270 81 9 13 0 
271 12 10 13 0 
272 31 11 13 0 
273 70 12 13 0 
274 41 13 13 0 
275 64 14 13 0 
276 25 15 13 0 
277 81 16 13 0 
278 31 17 13 0 
279 73 18 13 0 
280 56 19 13 0 
281 3 0 14 0 
282 16 1 14 0 
283 58 2 14 0 
284 53 3 14 0 
285 18 4 14 0 
286 82 5 14 0 
287 98 6 14 0 
288 59 7 14 0 
289 81 8 14 0 
290 16 9 14 0 
291 70 10 14 0 
292 9 11 14 0 
293 87 12 14 0 
294 46 13 14 0 
295 8 14 14 0 
296 59 15 14 0 
297 86 16 14 0 
298 46 17 14 0 
299 3 18 14 0 
300 58 19 14 0 
301 74 0 15 0 
302 95 1 15 0 
303 40 2 15 0 
304 85 3 15 0 
305 44 4 15 0 
306 69 5 15 0 
307 17 6 15 0 
308 92 7 15 0 
309 1 8 15 0 
310 21 9 15 0 
311 2 10 15 0 
312 29 11 15 0 
313 19 12 15 0 
314 81 13 15 0 
315 14 14 15 0 
316 6 15 15 0 
317 11 16 15 0 
318 65 17 15 0 
319 7 18 15 0 
320 27 19 15 0 
321 51 0 16 0 
322 72 1 16 0 
323 24 2 16 0 
324 6 3 16 0 
325 35 4 16 0 
326 35 5 16 0 
327 95 6 16 0 
328 96 7 16 0 
329 13 8 16 0 
330 83 9 16 0 
331 18 10 16 0 
332 23 11 16 0 
333 27 12 16 0 
334 87 13 16 0 
335 87 14 16 0 
336 34 15 16 0 
337 80 16 16 0 
338 87 17 16 0 
339 34 18 16 0 
340 14 19 16 0 
341 43 0 17 0 
342 4 1 17 0 
343 83 2 17 0 
344 84 3 17 0 
345 23 4 17 0 
346 26 5 17 0 
347 15 6 17 0 
348 29 7 17 0 
349 22 8 17 0 
350 5 9 17 0 
351 26 10 17 0 
352 4 11 17 0 
353 87 12 17 0 
354 70 13 17 0 
355 58 14 17 0 
356 4 15 17 0 
357 90 16 17 0 
358 3 17 17 0 
359 76 18 17 0 
360 8 19 17 0 
361 36 0 18 0 
362 65 1 18 0 
363 47 2 18 0 
364 9 3 18 0 
365 32 4 18 0 
366 30 5 18 0 
367 61 6 18 0 
368 21 7 18 0 
369 3 8 18 0 
370 69 9 18 0 
371 93 10 18 0 
372 45 11 18 0 
373 47 12 18 0 
374 71 13 18 0 
375 29 14 18 0 
376 41 15 18 0 
377 50 16 18 0 
378 96 17 18 0 
379 14 18 18 0 
380 62 19 18 0 
381 14 0 19 0 
382 34 1 19 0 
383 11 2 19 0 
384 77 3 19 0 
385 48 4 19 0 
386 23 5 19 0 
387 25 6 19 0 
388 48 7 19 0 
389 22 8 19 0 
390 62 9 19 0 
391 30 10 19 0 
392 3 11 19 0 
393 14 12 19 0 
394 58 13 19 0 
395 66 14 19 0 
396 32 15 19 0 
397 73 16 19 0 
398 81 17 19 0 
399 32 18 19 0 
400 94 19 19 0 
401 21 0 0 1 
402 42 1 0 1 
403 60 2 0 1 
404 2 3 0 1 
405 33 4 0 1 
406 50 5 0 1 
407 14 6 0 1 
408 26 7 0 1 
409 93 8 0 1 
410 42 9 0 1 
411 58 10 0 1 
412 42 11 0 1 
413 24 12 0 1 
414 27 13 0 1 
415 67 14 0 1 
416 60 15 0 1 
417 56 16 0 1 
418 90 17 0 1 
419 14 18 0 1 
420 80 19 0 1 
421 68 0 1 1 
422 58 1 1 1 
423 24 2 1 1 
424 17 3 1 1 
425 39 4 1 1 
426 84 5 1 1 
427 13 6 1 1 
428 27 7 1 1 
429 84 8 1 1 
430 93 9 1 1 
431 59 10 1 1 
432 46 11 1 1 
433 5 12 1 1 
434 53 13 1 1 
435 30 14 1 1 
436 74 15 1 1 
437 34 16 1 1 
438 77 17 1 1 
439 62 18 1 1 
440 74 19 1 1 
441 86 0 2 1 
442 27 1 2 1 
443 81 2 2 1 
444 9 3 2 1 
445 77 4 2 1 
446 39 5 2 1 
447 92 6 2 1 
448 54 7 2 1 
449 13 8 2 1 
450 74 9 2 1 
451 99 10 2 1 
452 38 11 2 1 
453 82 12 2 1 
454 42 13 2 1 
455 98 14 2 1 
456 37 15 2 1 
457 61 16 2 1 
458 56 17 2 1 
459 24 18 2 1 
460 100 19 2 1 
461 8 0 3 1 
462 66 1 3 1 
463 32 2 3 1 
464 71 3 3 1 
465 35 4 3 1 
466 85 5 3 1 
467 97 6 3 1 
468 6 7 3 1 
469 46 8 3 1 
470 37 9 3 1 
471 82 10 3 1 
472 67 11 3 1 
473 11 12 3 1 
474 59 13 3 1 
475 72 14 3 1 
476 54 15 3 1 
477 81 16 3 1 
478 87 17 3 1 
479 72 18 3 1 
480 95 19 3 1 
481 48 0 4 1 
482 87 1 4 1 
483 82 2 4 1 
484 29 3 4 1 
485 43 4 4 1 
486 88 5 4 1 
487 51 6 4 1 
488 12 7 4 1 
489 59 8 4 1 
490 21 9 4 1 
491 73 10 4 1 
492 61 11 4 1 
493 12 12 4 1 
494 28 13 4 1 
495 73 14 4 1 
496 63 15 4 1 
497 66 16 4 1 
498 92 17 4 1 
499 54 18 4 1 
500 14 19 4 1 
501 74 0 5 1 
502 31 1 5 1 
503 100 2 5 1 
504 19 3 5 1 
505 41 4 5 1 
506 11 5 5 1 
507 51 6 5 1 
508 41 7 5 1 
509 89 8 5 1 
510 24 9 5 1 
511 4 10 5 1 
512 44 11 5 1 
513 82 12 5 1 
514 24 13 5 1 
515 21 14 5 1 
516 74 15 5 1 
517 23 16 5 1 
518 36 17 5 1 
519 80 18 5 1 
520 70 19 5 1 
521 94 0 6 1 
522 69 1 6 1 
523 74 2 6 1 
524 23 3 6 1 
525 24 4 6 1 
526 43 5 6 1 
527 53 6 6 1 
528 75 7 6 1 
529 79 8 6 1 
530 97 9 6 1 
531 45 10 6 1 
532 60 11 6 1 
533 18 12 6 1 
534 21 13 6 1 
535 16 14 6 1 
536 24 15 6 1 
537 36 16 6 1 
538 18 17 6 1 
539 61 18 6 1 
540 75 19 6 1 
541 10 0 7 1 
542 57 1 7 1 
543 38 2 7 1 
544 39 3 7 1 
545 43 4 7 1 
546 80 5 7 1 
547 10 6 7 1 
548 50 7 7 1 
549 76 8 7 1 
550 73 9 7 1 
551 100 10 7 1 
552 60 11 7 1 
553 86 12 7 1 
554 2 13 7 1 
555 25 14 7 1 
556 79 15 7 1 
557 18 16 7 1 
558 63 17 7 1 
559 5 18 7 1 
560 94 19 7 1 
561 23 0 8 1 
562 15 1 8 1 
563 27 2 8 1 
564 5 3 8 1 
565 54 4 8 1 
566 32 5 8 1 
567 74 6 8 1 
568 3 7 8 1 
569 58 8 8 1 
570 82 9 8 1 
571 37 10 8 1 
572 78 11 8 1 
573 70 12 8 1 
574 77 13 8 1 
575 60 14 8 1 
576 81 15 8 1 
577 37 16 8 1 
578 24 17 8 1 
579 68 18 8 1 
580 84 19 8 1 
581 70 0 9 1 
582 60 1 9 1 
583 50 2 9 1 
584 35 3 9 1 
585 58 4 9 1 
586 36 5 9 1 
587 55 6 9 1 
588 57 7 9 1 
589 32 8 9 1 
590 55 9 9 1 
591 22 10 9 1 
592 69 11 9 1 
593 76 12 9 1 
594 82 13 9 1 
595 2 14 9 1 
596 18 15 9 1 
597 45 16 9 1 
598 56 17 9 1 
599 66 18 9 1 
600 61 19 9 1 
601 47 0 10 1 
602 73 1 10 1 
603 95 2 10 1 
604 91 3 10 1 
605 9 4 10 1 
606 4 5 10 1 
607 14 6 10 1 
608 72 7 10 1 
609 28 8 10 1 
610 38 9 10 1 
611 25 10 10 1 
612 43 11 10 1 
613 10 12 10 1 
614 96 13 10 1 
615 23 14 10 1 
616 95 15 10 1 
617 40 16 10 1 
618 72 17 10 1 
619 82 18 10 1 
620 64 19 10 1 
621 98 0 11 1 
622 77 1 11 1 
623 63 2 11 1 
624 69 3 11 1 
625 95 4 11 1 
626 83 5 11 1 
627 22 6 11 1 
628 39 7 11 1 
629 87 8 11 1 
630 3 9 11 1 
631 95 10 11 1 
632 89 11 11 1 
633 77 12 11 1 
634 60 13 11 1 
635 80 14 11 1 
636 100 15 11 1 
637 69 16 11 1 
638 52 17 11 1 
639 38 18 11 1 
640 78 19 11 1 
641 34 0 12 1 
642 98 1 12 1 
643 4 2 12 1 
644 31 3 12 1 
645 60 4 12 1 
646 73 5 12 1 
647 97 6 12 1 
648 13 7 12 1 
649 77 8 12 1 
650 64 9 12 1 
651 100 10 12 1 
652 20 11 12 1 
653 29 12 12 1 
654 31 13 12 1 
655 43 14 12 1 
656 2 15 12 1 
657 68 16 12 1 
658 71 17 12 1 
659 25 18 12 1 
660 61 19 12 1 
661 55 0 13 1 
662 21 1 13 1 
663 17 2 13 1 
664 83 3 13 1 
665 1 4 13 1 
666 31 5 13 1 
667 27 6 13 1 
668 96 7 13 1 
669 13 8 13 1 
670 60 9 13 1 
671 73 10 13 1 
672 95 11 13 1 
673 91 12 13 1 
674 5 13 13 1 
675 43 14 13 1 
676 99 15 13 1 
677 22 16 13 1 
678 36 17 13 1 
679 43 18 13 1 
680 14 19 13 1 
681 38 0 14 1 
682 13 1 14 1 
683 75 2 14 1 
684 57 3 14 1 
685 67 4 14 1 
686 12 5 14 1 
687 50 6 14 1 
688 72 7 14 1 
689 45 8 14 1 
690 58 9 14 1 
691 98 10 14 1 
692 57 11 14 1 
693 21 12 14 1 
694 88 13 14 1 
695 58 14 14 1 
696 54 15 14 1 
697 56 16 14 1 
698 48 17 14 1 
699 16 18 14 1 
700 40 19 14 1 
701 46 0 15 1 
702 78 1 15 1 
703 26 2 15 1 
704 9 3 15 1 
705 47 4 15 1 
706 67 5 15 1 
707 4 6 15 1 
708 61 7 15 1 
709 37 8 15 1 
710 99 9 15 1 
711 88 10 15 1 
712 56 11 15 1 
713 24 12 15 1 
714 44 13 15 1 
715 40 14 15 1 
716 92 15 15 1 
717 68 16 15 1 
718 16 17 15 1 
719 37 18 15 1 
720 60 19 15 1 
721 92 0 16 1 
722 51 1 16 1 
723 82 2 16 1 
724 18 3 16 1 
725 18 4 16 1 
726 62 5 16 1 
727 57 6 16 1 
728 66 7 16 1 
729 42 8 16 1 
730 53 9 16 1 
731 21 10 16 1 
732 71 11 16 1 
733 76 12 16 1 
734 78 13 16 1 
735 22 14 16 1 
736 79 15 16 1 
737 16 16 16 1 
738 43 17 16 1 
739 84 18 16 1 
740 41 19 16 1 
741 56 0 17 1 
742 10 1 17 1 
743 53 2 17 1 
744 75 3 17 1 
745 15 4 17 1 
746 44 5 17 1 
747 53 6 17 1 
748 74 7 17 1 
749 28 8 17 1 
750 54 9 17 1 
751 7 10 17 1 
752 74 11 17 1 
753 98 12 17 1 
754 78 13 17 1 
755 78 14 17 1 
756 8 15 17 1 
757 37 16 17 1 
758 98 17 17 1 
759 68 18 17 1 
760 22 19 17 1 
761 63 0 18 1 
762 71 1 18 1 
763 49 2 18 1 
764 69 3 18 1 
765 10 4 18 1 
766 3 5 18 1 
767 66 6 18 1 
768 84 7 18 1 
769 8 8 18 1 
770 9 9 18 1 
771 60 10 18 1 
772 99 11 18 1 
773 7 12 18 1 
774 51 13 18 1 
775 44 14 18 1 
776 10 15 18 1 
777 54 16 18 1 
778 20 17 18 1 
779 76 18 18 1 
780 72 19 18 1 
781 59 0 19 1 
782 7 1 19 1 
783 24 2 19 1 
784 77 3 19 1 
785 70 4 19 1 
786 52 5 19 1 
787 35 6 19 1 
788 34 7 19 1 
789 95 8 19 1 
790 95 9 19 1 
791 40 10 19 1 
792 64 11 19 1 
793 55 12 19 1 
794 91 13 19 1 
795 20 14 19 1 
796 68 15 19 1 
797 15 16 19 1 
798 21 17 19 1 
799 79 18 19 1 
800 80 19 19 1 
801 24 0 0 2 
802 3 1 0 2 
803 54 2 0 2 
804 83 3 0 2 
805 17 4 0 2 
806 91 5 0 2 
807 91 6 0 2 
808 26 7 0 2 
809 45 8 0 2 
810 99 9 0 2 
811 23 10 0 2 
812 92 11 0 2 
813 95 12 0 2 
814 13 13 0 2 
815 34 14 0 2 
816 69 15 0 2 
817 72 16 0 2 
818 52 17 0 2 
819 97 18 0 2 
820 46 19 0 2 
821 20 0 1 2 
822 55 1 1 2 
823 82 2 1 2 
824 93 3 1 2 
825 50 4 1 2 
826 39 5 1 2 
827 28 6 1 2 
828 74 7 1 2 
829 5 8 1 2 
830 45 9 1 2 
831 2 10 1 2 
832 65 11 1 2 
833 97 12 1 2 
834 9 13 1 2 
835 1 14 1 2 
836 68 15 1 2 
837 2 16 1 2 
838 81 17 1 2 
839 57 18 1 2 
840 56 19 1 2 
841 68 0 2 2 
842 51 1 2 2 
843 7 2 2 2 
844 92 3 2 2 
845 19 4 2 2 
846 44 5 2 2 
847 35 6 2 2 
848 76 7 2 2 
849 35 8 2 2 
850 22 9 2 2 
851 21 10 2 2 
852 86 11 2 2 
853 92 12 2 2 
854 55 13 2 2 
855 72 14 2 2 
856 58 15 2 2 
857 95 16 2 2 
858 81 17 2 2 
859 86 18 2 2 
860 95 19 2 2 
861 95 0 3 2 
862 64 1 3 2 
863 33 2 3 2 
864 89 3 3 2 
865 26 4 3 2 
866 18 5 3 2 
867 45 6 3 2 
868 79 7 3 2 
869 86 8 3 2 
870 10 9 3 2 
871 91 10 3 2 
872 93 11 3 2 
873 36 12 3 2 
874 28 13 3 2 
875 26 14 3 2 
876 26 15 3 2 
877 74 16 3 2 
878 35 17 3 2 
879 19 18 3 2 
880 36 19 3 2 
881 82 0 4 2 
882 96 1 4 2 
883 6 2 4 2 
884 35 3 4 2 
885 31 4 4 2 
886 48 5 4 2 
887 38 6 4 2 
888 12 7 4 2 
889 35 8 4 2 
890 2 9 4 2 
891 82 10 4 2 
892 3 11 4 2 
893 44 12 4 2 
894 21 13 4 2 
895 85 14 4 2 
896 5 15 4 2 
897 31 16 4 2 
898 32 17 4 2 
899 90 18 4 2 
900 70 19 4 2 
901 52 0 5 2 
902 96 1 5 2 
903 35 2 5 2 
904 65 3 5 2 
905 81 4 5 2 
906 55 5 5 2 
907 60 6 5 2 
908 69 7 5 2 
909 27 8 5 2 
910 93 9 5 2 
911 38 10 5 2 
912 34 11 5 2 
913 51 12 5 2 
914 28 13 5 2 
915 42 14 5 2 
916 65 15 5 2 
917 62 16 5 2 
918 88 17 5 2 
919 44 18 5 2 
920 87 19 5 2 
921 91 0 6 2 
922 17 1 6 2 
923 55 2 6 2 
924 5 3 6 2 
925 93 4 6 2 
926 27 5 6 2 
927 74 6 6 2 
928 51 7 6 2 
929 35 8 6 2 
930 33 9 6 2 
931 37 10 6 2 
932 19 11 6 2 
933 79 12 6 2 
934 11 13 6 2 
935 39 14 6 2 
936 64 15 6 2 
937 67 16 6 2 
938 66 17 6 2 
939 60 18 6 2 
940 63 19 6 2 
941 81 0 7 2 
942 65 1 7 2 
943 58 2 7 2 
944 34 3 7 2 
945 19 4 7 2 
946 15 5 7 2 
947 92 6 7 2 
948 50 7 7 2 
949 43 8 7 2 
950 74 9 7 2 
951 95 10 7 2 
952 18 11 7 2 
953 99 12 7 2 
954 5 13 7 2 
955 74 14 7 2 
956 40 15 7 2 
957 30 16 7 2 
958 35 17 7 2 
959 89 18 7 2 
960 29 19 7 2 
961 72 0 8 2 
962 47 1 8 2 
963 62 2 8 2 
964 76 3 8 2 
965 68 4 8 2 
966 48 5 8 2 
967 37 6 8 2 
968 9 7 8 2 
969 88 8 8 2 
970 66 9 8 2 
971 51 10 8 2 
972 88 11 8 2 
973 4 12 8 2 
974 38 13 8 2 
975 27 14 8 2 
976 61 15 8 2 
977 64 16 8 2 
978 68 17 8 2 
979 31 18 8 2 
980 49 19 8 2 
981 51 0 9 2 
982 27 1 9 2 
983 34 2 9 2 
984 15 3 9 2 
985 83 4 9 2 
986 21 5 9 2 
987 77 6 9 2 
988 24 7 9 2 
989 48 8 9 2 
990 5 9 9 2 
991 90 10 9 2 
992 42 11 9 2 
993 6 12 9 2 
994 96 13 9 2 
995 90 14 9 2 
996 41 15 9 2 
997 96 16 9 2 
998 6 17 9 2 
999 21 18 9 2 
1000 83 19 9 2 
1001 44 0 10 2 
1002 48 1 10 2 
1003 57 2 10 2 
1004 46 3 10 2 
1005 62 4 10 2 
1006 65 5 10 2 
1007 74 6 10 2 
1008 87 7 10 2 
1009 97 8 10 2 
1010 35 9 10 2 
1011 20 10 10 2 
1012 50 11 10 2 
1013 96 12 10 2 
1014 41 13 10 2 
1015 32 14 10 2 
1016 88 15 10 2 
1017 36 16 10 2 
1018 57 17 10 2 
1019 68 18 10 2 
1020 85 19 10 2 
1021 72 0 11 2 
1022 47 1 11 2 
1023 52 2 11 2 
1024 69 3 11 2 
1025 81 4 11 2 
1026 85 5 11 2 
1027 55 6 11 2 
1028 80 7 11 2 
1029 49 8 11 2 
1030 16 9 11 2 
1031 41 10 11 2 
1032 37 11 11 2 
1033 42 12 11 2 
1034 1 13 11 2 
1035 73 14 11 2 
1036 46 15 11 2 
1037 74 16 11 2 
1038 3 17 11 2 
1039 4 18 11 2 
1040 51 19 11 2 
1041 57 0 12 2 
1042 38 1 12 2 
1043 8 2 12 2 
1044 23 3 12 2 
1045 62 4 12 2 
1046 81 5 12 2 
1047 76 6 12 2 
1048 16 7 12 2 
1049 28 8 12 2 
1050 5 9 12 2 
1051 73 10 12 2 
1052 68 11 12 2 
1053 61 12 12 2 
1054 66 13 12 2 
1055 55 14 12 2 
1056 11 15 12 2 
1057 40 16 12 2 
1058 60 17 12 2 
1059 47 18 12 2 
1060 28 19 12 2 
1061 2 0 13 2 
1062 31 1 13 2 
1063 75 2 13 2 
1064 9 3 13 2 
1065 34 4 13 2 
1066 10 5 13 2 
1067 51 6 13 2 
1068 52 7 13 2 
1069 86 8 13 2 
1070 65 9 13 2 
1071 7 10 13 2 
1072 66 11 13 2 
1073 11 12 13 2 
1074 78 13 13 2 
1075 40 14 13 2 
1076 78 15 13 2 
1077 55 16 13 2 
1078 24 17 13 2 
1079 34 18 13 2 
1080 15 19 13 2 
1081 82 0 14 2 
1082 33 1 14 2 
1083 36 2 14 2 
1084 53 3 14 2 
1085 1 4 14 2 
1086 55 5 14 2 
1087 46 6 14 2 
1088 36 7 14 2 
1089 89 8 14 2 
1090 7 9 14 2 
1091 86 10 14 2 
1092 75 11 14 2 
1093 1 12 14 2 
1094 67 13 14 2 
1095 13 14 14 2 
1096 3 15 14 2 
1097 91 16 14 2 
1098 21 17 14 2 
1099 49 18 14 2 
1100 34 19 14 2 
1101 64 0 15 2 
1102 13 1 15 2 
1103 10 2 15 2 
1104 30 3 15 2 
1105 12 4 15 2 
1106 4 5 15 2 
1107 93 6 15 2 
1108 60 7 15 2 
1109 14 8 15 2 
1110 14 9 15 2 
1111 95 10 15 2 
1112 66 11 15 2 
1113 17 12 15 2 
1114 48 13 15 2 
1115 20 14 15 2 
1116 30 15 15 2 
1117 23 16 15 2 
1118 2 17 15 2 
1119 51 18 15 2 
1120 87 19 15 2 
1121 25 0 16 2 
1122 24 1 16 2 
1123 52 2 16 2 
1124 65 3 16 2 
1125 17 4 16 2 
1126 45 5 16 2 
1127 16 6 16 2 
1128 81 7 16 2 
1129 71 8 16 2 
1130 63 9 16 2 
1131 24 10 16 2 
1132 67 11 16 2 
1133 13 12 16 2 
1134 43 13 16 2 
1135 53 14 16 2 
1136 41 15 16 2 
1137 57 16 16 2 
1138 88 17 16 2 
1139 57 18 16 2 
1140 87 19 16 2 
1141 96 0 17 2 
1142 14 1 17 2 
1143 99 2 17 2 
1144 86 3 17 2 
1145 53 4 17 2 
1146 79 5 17 2 
1147 86 6 17 2 
1148 83 7 17 2 
1149 24 8 17 2 
1150 30 9 17 2 
1151 19 10 17 2 
1152 46 11 17 2 
1153 16 12 17 2 
1154 81 13 17 2 
1155 58 14 17 2 
1156 22 15 17 2 
1157 54 16 17 2 
1158 59 17 17 2 
1159 66 18 17 2 
1160 60 19 17 2 
1161 64 0 18 2 
1162 4 1 18 2 
1163 61 2 18 2 
1164 83 3 18 2 
1165 4 4 18 2 
1166 73 5 18 2 
1167 92 6 18 2 
1168 24 7 18 2 
1169 53 8 18 2 
1170 77 9 18 2 
1171 42 10 18 2 
1172 25 11 18 2 
1173 82 12 18 2 
1174 11 13 18 2 
1175 6 14 18 2 
1176 25 15 18 2 
1177 7 16 18 2 
1178 47 17 18 2 
1179 5 18 18 2 
1180 35 19 18 2 
1181 13 0 19 2 
1182 11 1 19 2 
1183 63 2 19 2 
1184 43 3 19 2 
1185 14 4 19 2 
1186 77 5 19 2 
1187 60 6 19 2 
1188 14 7 19 2 
1189 25 8 19 2 
1190 42 9 19 2 
1191 18 10 19 2 
1192 47 11 19 2 
1193 91 12 19 2 
1194 84 13 19 2 
1195 37 14 19 2 
1196 61 15 19 2 
1197 44 16 19 2 
1198 86 17 19 2 
1199 67 18 19 2 
1200 25 19 19 2 
1201 46 0 0 3 
1202 27 1 0 3 
1203 93 2 0 3 
1204 21 3 0 3 
1205 66 4 0 3 
1206 78 5 0 3 
1207 83 6 0 3 
1208 5 7 0 3 
1209 96 8 0 3 
1210 86 9 0 3 
1211 90 10 0 3 
1212 100 11 0 3 
1213 27 12 0 3 
1214 92 13 0 3 
1215 76 14 0 3 
1216 60 15 0 3 
1217 5 16 0 3 
1218 42 17 0 3 
1219 80 18 0 3 
1220 92 19 0 3 
1221 31 0 1 3 
1222 32 1 1 3 
1223 100 2 1 3 
1224 33 3 1 3 
1225 93 4 1 3 
1226 22 5 1 3 
1227 25 6 1 3 
1228 86 7 1 3 
1229 90 8 1 3 
1230 10 9 1 3 
1231 49 10 1 3 
1232 63 11 1 3 
1233 46 12 1 3 
1234 93 13 1 3 
1235 45 14 1 3 
1236 34 15 1 3 
1237 55 16 1 3 
1238 9 17 1 3 
1239 96 18 1 3 
1240 51 19 1 3 
1241 67 0 2 3 
1242 36 1 2 3 
1243 34 2 2 3 
1244 89 3 2 3 
1245 21 4 2 3 
1246 98 5 2 3 
1247 84 6 2 3 
1248 21 7 2 3 
1249 44 8 2 3 
1250 71 9 2 3 
1251 53 10 2 3 
1252 52 11 2 3 
1253 83 12 2 3 
1254 17 13 2 3 
1255 11 14 2 3 
1256 85 15 2 3 
1257 40 16 2 3 
1258 51 17 2 3 
1259 56 18 2 3 
1260 80 19 2 3 
1261 17 0 3 3 
1262 16 1 3 3 
1263 38 2 3 3 
1264 91 3 3 3 
1265 45 4 3 3 
1266 72 5 3 3 
1267 36 6 3 3 
1268 92 7 3 3 
1269 74 8 3 3 
1270 56 9 3 3 
1271 67 10 3 3 
1272 15 11 3 3 
1273 39 12 3 3 
1274 84 13 3 3 
1275 14 14 3 3 
1276 67 15 3 3 
1277 47 16 3 3 
1278 57 17 3 3 
1279 24 18 3 3 
1280 86 19 3 3 
1281 7 0 4 3 
1282 43 1 4 3 
1283 26 2 4 3 
1284 6 3 4 3 
1285 92 4 4 3 
1286 76 5 4 3 
1287 28 6 4 3 
1288 94 7 4 3 
1289 72 8 4 3 
1290 29 9 4 3 
1291 55 10 4 3 
1292 78 11 4 3 
1293 2 12 4 3 
1294 62 13 4 3 
1295 26 14 4 3 
1296 29 15 4 3 
1297 36 16 4 3 
1298 19 17 4 3 
1299 60 18 4 3 
1300 2 19 4 3 
1301 20 0 5 3 
1302 43 1 5 3 
1303 38 2 5 3 
1304 15 3 5 3 
1305 16 4 5 3 
1306 61 5 5 3 
1307 73 6 5 3 
1308 30 7 5 3 
1309 33 8 5 3 
1310 23 9 5 3 
1311 67 10 5 3 
1312 86 11 5 3 
1313 16 12 5 3 
1314 43 13 5 3 
1315 11 14 5 3 
1316 6 15 5 3 
1317 51 16 5 3 
1318 97 17 5 3 
1319 22 18 5 3 
1320 6 19 5 3 
1321 20 0 6 3 
1322 85 1 6 3 
1323 83 2 6 3 
1324 17 3 6 3 
1325 43 4 6 3 
1326 85 5 6 3 
1327 5 6 6 3 
1328 62 7 6 3 
1329 88 8 6 3 
1330 95 9 6 3 
1331 15 10 6 3 
1332 34 11 6 3 
1333 53 12 6 3 
1334 7 13 6 3 
1335 49 14 6 3 
1336 86 15 6 3 
1337 6 16 6 3 
1338 7 17 6 3 
1339 45 18 6 3 
1340 19 19 6 3 
1341 30 0 7 3 
1342 97 1 7 3 
1343 80 2 7 3 
1344 59 3 7 3 
1345 92 4 7 3 
1346 33 5 7 3 
1347 12 6 7 3 
1348 2 7 7 3 
1349 36 8 7 3 
1350 35 9 7 3 
1351 30 10 7 3 
1352 39 11 7 3 
1353 59 12 7 3 
1354 88 13 7 3 
1355 89 14 7 3 
1356 78 15 7 3 
1357 8 16 7 3 
1358 85 17 7 3 
1359 58 18 7 3 
1360 89 19 7 3 
1361 5 0 8 3 
1362 76 1 8 3 
1363 36 2 8 3 
1364 99 3 8 3 
1365 79 4 8 3 
1366 95 5 8 3 
1367 71 6 8 3 
1368 31 7 8 3 
1369 95 8 8 3 
1370 76 9 8 3 
1371 50 10 8 3 
1372 26 11 8 3 
1373 85 12 8 3 
1374 97 13 8 3 
1375 8 14 8 3 
1376 1 15 8 3 
1377 75 16 8 3 
1378 28 17 8 3 
1379 3 18 8 3 
1380 71 19 8 3 
1381 30 0 9 3 
1382 66 1 9 3 
1383 46 2 9 3 
1384 50 3 9 3 
1385 92 4 9 3 
1386 76 5 9 3 
1387 1 6 9 3 
1388 82 7 9 3 
1389 76 8 9 3 
1390 26 9 9 3 
1391 58 10 9 3 
1392 78 11 9 3 
1393 26 12 9 3 
1394 94 13 9 3 
1395 31 14 9 3 
1396 87 15 9 3 
1397 2 16 9 3 
1398 58 17 9 3 
1399 35 18 9 3 
1400 71 19 9 3 
1401 88 0 10 3 
1402 33 1 10 3 
1403 52 2 10 3 
1404 70 3 10 3 
1405 96 4 10 3 
1406 89 5 10 3 
1407 88 6 10 3 
1408 53 7 10 3 
1409 35 8 10 3 
1410 4 9 10 3 
1411 77 10 10 3 
1412 83 11 10 3 
1413 80 12 10 3 
1414 4 13 10 3 
1415 71 14 10 3 
1416 71 15 10 3 
1417 49 16 10 3 
1418 98 17 10 3 
1419 79 18 10 3 
1420 12 19 10 3 
1421 65 0 11 3 
1422 51 1 11 3 
1423 43 2 11 3 
1424 71 3 11 3 
1425 70 4 11 3 
1426 32 5 11 3 
1427 79 6 11 3 
1428 35 7 11 3 
1429 77 8 11 3 
1430 34 9 11 3 
1431 49 10 11 3 
1432 92 11 11 3 
1433 35 12 11 3 
1434 68 13 11 3 
1435 29 14 11 3 
1436 3 15 11 3 
1437 56 16 11 3 
1438 57 17 11 3 
1439 34 18 11 3 
1440 58 19 11 3 
1441 46 0 12 3 
1442 34 1 12 3 
1443 68 2 12 3 
1444 27 3 12 3 
1445 77 4 12 3 
1446 88 5 12 3 
1447 65 6 12 3 
1448 7 7 12 3 
1449 91 8 12 3 
1450 14 9 12 3 
1451 34 10 12 3 
1452 37 11 12 3 
1453 38 12 12 3 
1454 59 13 12 3 
1455 87 14 12 3 
1456 50 15 12 3 
1457 32 16 12 3 
1458 22 17 12 3 
1459 32 18 12 3 
1460 59 19 12 3 
1461 51 0 13 3 
1462 92 1 13 3 
1463 13 2 13 3 
1464 74 3 13 3 
1465 26 4 13 3 
1466 71 5 13 3 
1467 95 6 13 3 
1468 72 7 13 3 
1469 77 8 13 3 
1470 60 9 13 3 
1471 28 10 13 3 
1472 52 11 13 3 
1473 64 12 13 3 
1474 80 13 13 3 
1475 1 14 13 3 
1476 24 15 13 3 
1477 59 16 13 3 
1478 15 17 13 3 
1479 1 18 13 3 
1480 58 19 13 3 
1481 48 0 14 3 
1482 33 1 14 3 
1483 23 2 14 3 
1484 26 3 14 3 
1485 38 4 14 3 
1486 54 5 14 3 
1487 37 6 14 3 
1488 67 7 14 3 
1489 99 8 14 3 
1490 1 9 14 3 
1491 88 10 14 3 
1492 51 11 14 3 
1493 29 12 14 3 
1494 58 13 14 3 
1495 91 14 14 3 
1496 75 15 14 3 
1497 95 16 14 3 
1498 94 17 14 3 
1499 53 18 14 3 
1500 61 19 14 3 
1501 14 0 15 3 
1502 64 1 15 3 
1503 57 2 15 3 
1504 11 3 15 3 
1505 100 4 15 3 
1506 53 5 15 3 
1507 11 6 15 3 
1508 22 7 15 3 
1509 30 8 15 3 
1510 95 9 15 3 
1511 26 10 15 3 
1512 71 11 15 3 
1513 86 12 15 3 
1514 92 13 15 3 
1515 72 14 15 3 
1516 86 15 15 3 
1517 79 16 15 3 
1518 88 17 15 3 
1519 62 18 15 3 
1520 74 19 15 3 
1521 4 0 16 3 
1522 97 1 16 3 
1523 84 2 16 3 
1524 57 3 16 3 
1525 9 4 16 3 
1526 97 5 16 3 
1527 81 6 16 3 
1528 3 7 16 3 
1529 10 8 16 3 
1530 39 9 16 3 
1531 35 10 16 3 
1532 43 11 16 3 
1533 68 12 16 3 
1534 22 13 16 3 
1535 46 14 16 3 
1536 50 15 16 3 
1537 4 16 16 3 
1538 71 17 16 3 
1539 56 18 16 3 
1540 77 19 16 3 
1541 24 0 17 3 
1542 41 1 17 3 
1543 29 2 17 3 
1544 96 3 17 3 
1545 63 4 17 3 
1546 78 5 17 3 
1547 30 6 17 3 
1548 16 7 17 3 
1549 79 8 17 3 
1550 27 9 17 3 
1551 74 10 17 3 
1552 34 11 17 3 
1553 56 12 17 3 
1554 90 13 17 3 
1555 2 14 17 3 
1556 66 15 17 3 
1557 23 16 17 3 
1558 82 17 17 3 
1559 78 18 17 3 
1560 95 19 17 3 
1561 83 0 18 3 
1562 24 1 18 3 
1563 52 2 18 3 
1564 20 3 18 3 
1565 82 4 18 3 
1566 35 5 18 3 
1567 85 6 18 3 
1568 68 7 18 3 
1569 72 8 18 3 
1570 25 9 18 3 
1571 89 10 18 3 
1572 59 11 18 3 
1573 80 12 18 3 
1574 8 13 18 3 
1575 37 14 18 3 
1576 36 15 18 3 
1577 95 16 18 3 
1578 99 17 18 3 
1579 32 18 18 3 
1580 85 19 18 3 
1581 15 0 19 3 
1582 74 1 19 3 
1583 67 2 19 3 
1584 46 3 19 3 
1585 10 4 19 3 
1586 42 5 19 3 
1587 60 6 19 3 
1588 68 7 19 3 
1589 19 8 19 3 
1590 85 9 19 3 
1591 13 10 19 3 
1592 82 11 19 3 
1593 38 12 19 3 
1594 78 13 19 3 
1595 7 14 19 3 
1596 83 15 19 3 
1597 8 16 19 3 
1598 51 17 19 3 
1599 46 18 19 3 
1600 15 19 19 3 
1601 50 0 0 4 
1602 34 1 0 4 
1603 7 2 0 4 
1604 97 3 0 4 
1605 83 4 0 4 
1606 26 5 0 4 
1607 53 6 0 4 
1608 40 7 0 4 
1609 80 8 0 4 
1610 8 9 0 4 
1611 12 10 0 4 
1612 87 11 0 4 
1613 37 12 0 4 
1614 32 13 0 4 
1615 79 14 0 4 
1616 4 15 0 4 
1617 27 16 0 4 
1618 35 17 0 4 
1619 26 18 0 4 
1620 52 19 0 4 
1621 90 0 1 4 
1622 76 1 1 4 
1623 96 2 1 4 
1624 2 3 1 4 
1625 86 4 1 4 
1626 14 5 1 4 
1627 43 6 1 4 
1628 21 7 1 4 
1629 30 8 1 4 
1630 62 9 1 4 
1631 15 10 1 4 
1632 73 11 1 4 
1633 70 12 1 4 
1634 54 13 1 4 
1635 6 14 1 4 
1636 42 15 1 4 
1637 18 16 1 4 
1638 73 17 1 4 
1639 68 18 1 4 
1640 77 19 1 4 
1641 85 0 2 4 
1642 71 1 2 4 
1643 7 2 2 4 
1644 47 3 2 4 
1645 91 4 2 4 
1646 58 5 2 4 
1647 69 6 2 4 
1648 79 7 2 4 
1649 95 8 2 4 
1650 77 9 2 4 
1651 15 10 2 4 
1652 82 11 2 4 
1653 8 12 2 4 
1654 72 13 2 4 
1655 47 14 2 4 
1656 14 15 2 4 
1657 97 16 2 4 
1658 73 17 2 4 
1659 46 18 2 4 
1660 57 19 2 4 
1661 30 0 3 4 
1662 55 1 3 4 
1663 82 2 3 4 
1664 5 3 3 4 
1665 55 4 3 4 
1666 91 5 3 4 
1667 59 6 3 4 
1668 76 7 3 4 
1669 93 8 3 4 
1670 94 9 3 4 
1671 36 10 3 4 
1672 65 11 3 4 
1673 37 12 3 4 
1674 55 13 3 4 
1675 94 14 3 4 
1676 69 15 3 4 
1677 45 16 3 4 
1678 98 17 3 4 
1679 15 18 3 4 
1680 67 19 3 4 
1681 15 0 4 4 
1682 37 1 4 4 
1683 56 2 4 4 
1684 77 3 4 4 
1685 63 4 4 4 
1686 77 5 4 4 
1687 49 6 4 4 
1688 79 7 4 4 
1689 81 8 4 4 
1690 60 9 4 4 
1691 20 10 4 4 
1692 69 11 4 4 
1693 38 12 4 4 
1694 36 13 4 4 
1695 80 14 4 4 
1696 37 15 4 4 
1697 41 16 4 4 
1698 8 17 4 4 
1699 68 18 4 4 
1700 31 19 4 4 
1701 60 0 5 4 
1702 19 1 5 4 
1703 35 2 5 4 
1704 24 3 5 4 
1705 29 4 5 4 
1706 52 5 5 4 
1707 19 6 5 4 
1708 33 7 5 4 
1709 33 8 5 4 
1710 90 9 5 4 
1711 84 10 5 4 
1712 25 11 5 4 
1713 19 12 5 4 
1714 94 13 5 4 
1715 78 14 5 4 
1716 46 15 5 4 
1717 10 16 5 4 
1718 93 17 5 4 
1719 86 18 5 4 
1720 84 19 5 4 
1721 79 0 6 4 
1722 25 1 6 4 
1723 86 2 6 4 
1724 8 3 6 4 
1725 51 4 6 4 
1726 4 5 6 4 
1727 42 6 6 4 
1728 72 7 6 4 
1729 88 8 6 4 
1730 90 9 6 4 
1731 66 10 6 4 
1732 96 11 6 4 
1733 65 12 6 4 
1734 50 13 6 4 
1735 71 14 6 4 
1736 34 15 6 4 
1737 58 16 6 4 
1738 98 17 6 4 
1739 80 18 6 4 
1740 76 19 6 4 
1741 26 0 7 4 
1742 53 1 7 4 
1743 65 2 7 4 
1744 40 3 7 4 
1745 25 4 7 4 
1746 68 5 7 4 
1747 10 6 7 4 
1748 74 7 7 4 
1749 84 8 7 4 
1750 43 9 7 4 
1751 8 10 7 4 
1752 61 11 7 4 
1753 71 12 7 4 
1754 18 13 7 4 
1755 70 14 7 4 
1756 38 15 7 4 
1757 22 16 7 4 
1758 34 17 7 4 
1759 92 18 7 4 
1760 7 19 7 4 
1761 68 0 8 4 
1762 74 1 8 4 
1763 59 2 8 4 
1764 92 3 8 4 
1765 47 4 8 4 
1766 69 5 8 4 
1767 3 6 8 4 
1768 15 7 8 4 
1769 49 8 8 4 
1770 12 9 8 4 
1771 8 10 8 4 
1772 41 11 8 4 
1773 25 12 8 4 
1774 59 13 8 4 
1775 1 14 8 4 
1776 59 15 8 4 
1777 52 16 8 4 
1778 60 17 8 4 
1779 23 18 8 4 
1780 40 19 8 4 
1781 15 0 9 4 
1782 13 1 9 4 
1783 52 2 9 4 
1784 10 3 9 4 
1785 91 4 9 4 
1786 62 5 9 4 
1787 9 6 9 4 
1788 47 7 9 4 
1789 55 8 9 4 
1790 55 9 9 4 
1791 74 10 9 4 
1792 14 11 9 4 
1793 99 12 9 4 
1794 90 13 9 4 
1795 46 14 9 4 
1796 93 15 9 4 
1797 97 16 9 4 
1798 68 17 9 4 
1799 27 18 9 4 
1800 54 19 9 4 
1801 12 0 10 4 
1802 86 1 10 4 
1803 26 2 10 4 
1804 74 3 10 4 
1805 66 4 10 4 
1806 45 5 10 4 
1807 94 6 10 4 
1808 50 7 10 4 
1809 98 8 10 4 
1810 49 9 10 4 
1811 73 10 10 4 
1812 6 11 10 4 
1813 19 12 10 4 
1814 5 13 10 4 
1815 2 14 10 4 
1816 10 15 10 4 
1817 74 16 10 4 
1818 68 17 10 4 
1819 38 18 10 4 
1820 90 19 10 4 
1821 25 0 11 4 
1822 16 1 11 4 
1823 6 2 11 4 
1824 34 3 11 4 
1825 77 4 11 4 
1826 76 5 11 4 
1827 51 6 11 4 
1828 60 7 11 4 
1829 33 8 11 4 
1830 21 9 11 4 
1831 21 10 11 4 
1832 65 11 11 4 
1833 6 12 11 4 
1834 10 13 11 4 
1835 46 14 11 4 
1836 2 15 11 4 
1837 21 16 11 4 
1838 68 17 11 4 
1839 71 18 11 4 
1840 61 19 11 4 
1841 10 0 12 4 
1842 62 1 12 4 
1843 94 2 12 4 
1844 54 3 12 4 
1845 44 4 12 4 
1846 16 5 12 4 
1847 89 6 12 4 
1848 30 7 12 4 
1849 16 8 12 4 
1850 90 9 12 4 
1851 71 10 12 4 
1852 54 11 12 4 
1853 30 12 12 4 
1854 43 13 12 4 
1855 86 14 12 4 
1856 23 15 12 4 
1857 82 16 12 4 
1858 95 17 12 4 
1859 89 18 12 4 
1860 93 19 12 4 
1861 97 0 13 4 
1862 1 1 13 4 
1863 62 2 13 4 
1864 35 3 13 4 
1865 54 4 13 4 
1866 47 5 13 4 
1867 51 6 13 4 
1868 5 7 13 4 
1869 2 8 13 4 
1870 34 9 13 4 
1871 67 10 13 4 
1872 96 11 13 4 
1873 31 12 13 4 
1874 10 13 13 4 
1875 35 14 13 4 
1876 39 15 13 4 
1877 79 16 13 4 
1878 72 17 13 4 
1879 83 18 13 4 
1880 90 19 13 4 
1881 96 0 14 4 
1882 73 1 14 4 
1883 5 2 14 4 
1884 43 3 14 4 
1885 7 4 14 4 
1886 39 5 14 4 
1887 6 6 14 4 
1888 83 7 14 4 
1889 15 8 14 4 
1890 42 9 14 4 
1891 95 10 14 4 
1892 70 11 14 4 
1893 4 12 14 4 
1894 68 13 14 4 
1895 25 14 14 4 
1896 53 15 14 4 
1897 39 16 14 4 
1898 91 17 14 4 
1899 89 18 14 4 
1900 77 19 14 4 
1901 50 0 15 4 
1902 1 1 15 4 
1903 37 2 15 4 
1904 17 3 15 4 
1905 5 4 15 4 
1906 37 5 15 4 
1907 79 6 15 4 
1908 91 7 15 4 
1909 20 8 15 4 
1910 12 9 15 4 
1911 36 10 15 4 
1912 97 11 15 4 
1913 50 12 15 4 
1914 23 13 15 4 
1915 65 14 15 4 
1916 75 15 15 4 
1917 48 16 15 4 
1918 13 17 15 4 
1919 49 18 15 4 
1920 58 19 15 4 
1921 98 0 16 4 
1922 59 1 16 4 
1923 81 2 16 4 
1924 5 3 16 4 
1925 34 4 16 4 
1926 36 5 16 4 
1927 10 6 16 4 
1928 72 7 16 4 
1929 86 8 16 4 
1930 58 9 16 4 
1931 23 10 16 4 
1932 63 11 16 4 
1933 70 12 16 4 
1934 96 13 16 4 
1935 21 14 16 4 
1936 100 15 16 4 
1937 26 16 16 4 
1938 38 17 16 4 
1939 77 18 16 4 
1940 99 19 16 4 
1941 9 0 17 4 
1942 16 1 17 4 
1943 53 2 17 4 
1944 83 3 17 4 
1945 8 4 17 4 
1946 32 5 17 4 
1947 32 6 17 4 
1948 100 7 17 4 
1949 85 8 17 4 